% Model:              piezoelectric_rate_gyroscope.mph
% Version:            COMSOL 5.6.0.401
% Date:               Jan 18 2023, 16:18
% Table:              Eigenfrequencies (Eigenmodes) - 
% Eigenfrequency                                  Angular frequency (rad/s)                         Damping ratio (1)                                 Quality factor (1)
3898.0156191747+0.09661998338489766i              24491.954465555013+0.6070812599839247i            2.4786966701706802E-5                             20171.891382158134
6159.057733671256+0.1532410898285904i             38698.501058274036+0.9628421640671863i            2.488060615886057E-5                              20095.973418313937
7460.352792749389+0.18552135983978882i            46874.77905377915+1.165665082313338i              2.4867638962426983E-5                             20106.45243625501
8386.36282913629+0.2082183515221384i              52693.07170870616+1.3082744869690544i             2.4828206899725295E-5                             20138.385426679044
9214.154512227373+0.22965147761818724i            57894.240249309514+1.4429427899426757i            2.4923771057030343E-5                             20061.169670348223
9674.061926613342+0.23998267641874893i            60783.92375804239+1.5078556264519163i             2.480681622315406E-5                              20155.750560739532
10220.202161147172+0.2543150351667951i            64215.42405532496+1.5979084923548668i             2.4883562093796637E-5                             20093.58620422949
10612.404448253472+0.2613084227542357i            66679.7037031135+1.6418492424916857i              2.462292348064686E-5                              20306.28086843507
21077.78248142821+23.63503586954435i              132435.613195237+148.50331011018355i              0.001121323888383633                              445.9014965967955
